VARIABLES= "X" "Y" "MATERIAL" "SIGXX" "SIGYY" "SIGXY"
ZONE T="TIME=0.0sec" N=    179 E=    331 DATAPACKING=BLOCK  ZONETYPE=FETRIANGLE
VARLOCATION=([3,4,5,6] =CELLCENTERED) C=BLACK

      5.0000      4.1483      4.4362      5.0000      3.3041      3.8269      3.2284      4.5464      4.1991      4.4127
      4.6216      5.0000      2.8857      2.7982      2.6590      2.6224      3.6334      3.2333      2.9060      2.6771
      4.1060      3.8220      4.2302      3.9494      4.0535      4.4510      4.6019      5.0000      2.4672      2.4844
      2.2909      2.4737      2.3936      3.4707      3.1504      3.0000      2.7769      2.3158      2.6053      3.6797
      3.6764      3.8664      3.7613      3.6434      3.8079      4.1797      4.3694      5.0000      2.0524      2.1610
      2.2289      2.1246      3.2895      2.2181      2.8862      2.5508      3.4211      3.5367      3.5254      3.3947
      3.3158      3.2650      3.5340      3.7772      4.2805      5.0000      1.7740      1.6376      2.1418      1.9715
      1.9093      1.9211      2.9334      2.5051      2.2741      3.0738      2.8247      3.2368      3.1145      3.0000
      2.0192      3.0030      3.2884      3.2148      3.5333      4.0000      1.5710      1.3224      0.8152      1.8685
      1.7105      1.5958      0.0000      2.5380      2.1722      2.7573      2.9103      2.8169      1.9236      1.7411
      2.7144      2.9370      2.8300      2.9275      3.0000      1.2679      0.8818      0.4380      1.6304      1.5142
      1.2932      0.0000      1.9778      2.3068      2.5378      2.5789      1.5263      1.7112      1.5114      2.3781
      2.5799      2.5006      2.4946      2.0000      0.9647      0.4986      1.3507      1.0865      0.0000      1.7737
      1.9830      2.1863      2.2105      1.5526      1.3605      1.5000      2.0615      2.1341      2.0521      1.5573
      1.0000      0.0000      0.7825      0.4383      1.0591      0.2532      0.0000      1.6579      1.7609      1.8947
      1.8492      1.4744      1.3568      1.2223      1.7469      1.6398      1.1027      0.5444      0.0000      0.6668
      0.9620      0.4200      0.0000      0.0000      1.5157      1.6399      1.5521      1.2921      1.1044      1.2620
      0.6226      0.7675      0.4176      0.5451      1.2741      1.0343      0.9118      0.7779      0.9981



      0.0000      0.0000      0.5111      1.0000      0.0000      0.5079      0.5398      1.5316      1.0561      2.0156
      2.4728      2.0000      0.0000      0.4428      0.2061      0.6836      0.9562      1.0374      0.8489      0.9140
      1.6007      1.3123      2.4550      2.0508      2.8283      2.8995      3.3773      3.0000      0.0000      0.3828
      0.2161      0.8653      0.6504      1.3087      1.3746      1.2105      1.1213      1.0526      1.0526      1.6650
      1.9589      2.4744      2.7693      2.2091      3.1079      3.2656      3.7187      4.0000      0.0000      0.4813
      0.8387      1.1291      1.5263      1.3372      1.4228      1.2689      1.9211      2.5433      2.8935      2.3158
      2.4868      3.0508      3.2285      3.6572      4.2884      5.0000      0.4278      0.0000      1.6252      1.4459
      0.8534      1.2105      1.8301      1.6256      1.8482      2.1656      2.1034      2.6579      2.4470      2.8947
      1.8555      3.1982      3.4263      3.8602      4.3491      5.0000      0.7613      0.4723      0.0000      1.6340
      1.4211      1.1264      0.0000      2.0408      2.0869      2.3719      2.6810      2.9634      2.0595      1.8715
      3.2955      3.5534      3.8833      4.2823      5.0000      0.9296      0.7185      0.5404      1.5812      1.4114
      1.3016      0.8152      2.2981      2.4094      2.7482      3.0526      1.7895      2.1783      1.9977      3.3534
      3.6492      4.0646      4.5295      5.0000      1.2021      1.1697      1.6287      1.5159      1.6376      2.4637
      2.5821      2.7277      3.0263      2.3947      1.9352      2.1579      3.3553      3.7404      4.2980      4.4897
      5.0000      5.0000      1.5813      1.6943      1.8679      2.0435      2.0524      2.6053      2.7197      2.8684
      3.1569      2.5609      2.3977      2.1690      3.4997      3.9611      4.1884      4.4110      4.1483      2.0384
      2.2058      2.3692      2.4672      3.3041      2.7519      2.9576      3.2353      2.6542      2.4474      3.5491
      3.7172      2.5024      2.7908      3.1899      3.0130      2.7509      3.2262      2.9070      2.9754



      1      1      1      1      1      1      1      1      1      1
      1      1      1      1      1      1      1      1      1      1
      1      1      1      1      1      1      1      1      1      1
      1      1      1      1      1      1      1      1      1      1
      1      1      1      1      1      1      1      1      1      1
      1      1      1      1      1      1      1      1      1      1
      1      1      1      1      1      1      1      1      1      1
      1      1      1      1      1      1      1      1      1      1
      1      1      1      1      1      1      1      1      1      1
      1      1      1      1      1      1      1      1      1      1
      1      1      1      1      1      1      1      1      1      1
      1      1      1      1      1      1      1      1      1      1
      1      1      1      1      1      1      1      1      1      1
      1      1      1      1      1      1      1      1      1      1
      1      1      1      1      1      1      1      1      1      1
      1      1      1      1      1      1      1      1      1      1
      1      1      1      1      1      1      1      1      1      1
      1      1      1      1      1      1      1      1      1      1
      1      1      1      1      1      1      1      1      1      1
      1      1      1      1      1      1      1      1      1      1
      1      1      1      1      1      1      1      1      1      1
      1      1      1      1      1      1      1      1      1      1
      1      1      1      1      1      1      1      1      1      1
      1      1      1      1      1      1      1      1      1      1
      1      1      1      1      1      1      1      1      1      1
      1      1      1      1      1      1      1      1      1      1
      1      1      1      1      1      1      1      1      1      1
      1      1      1      1      1      1      1      1      1      1
      1      1      1      1      1      1      1      1      1      1
      1      1      1      1      1      1      1      1      1      1
      1      1      1      1      1      1      1      1      1      1
      1      1      1      1      1      1      1      1      1      1
      1      1      1      1      1      1      1      1      1      1
      1



       0.0000000       0.0000000       0.0000000       0.0000000       0.0000000       0.0000000       0.0000000       0.0000000       0.0000000       0.0000000
       0.0000000       0.0000000       0.0000000       0.0000000       0.0000000       0.0000000       0.0000000       0.0000000       0.0000000       0.0000000
       0.0000000       0.0000000       0.0000000       0.0000000       0.0000000       0.0000000       0.0000000       0.0000000       0.0000000       0.0000000
       0.0000000       0.0000000       0.0000000       0.0000000       0.0000000       0.0000000       0.0000000       0.0000000       0.0000000       0.0000000
       0.0000000       0.0000000       0.0000000       0.0000000       0.0000000       0.0000000       0.0000000       0.0000000       0.0000000       0.0000000
       0.0000000       0.0000000       0.0000000       0.0000000       0.0000000       0.0000000       0.0000000       0.0000000       0.0000000       0.0000000
       0.0000000       0.0000000       0.0000000       0.0000000       0.0000000       0.0000000       0.0000000       0.0000000       0.0000000       0.0000000
       0.0000000       0.0000000       0.0000000       0.0000000       0.0000000       0.0000000       0.0000000       0.0000000       0.0000000       0.0000000
       0.0000000       0.0000000       0.0000000       0.0000000       0.0000000       0.0000000       0.0000000       0.0000000       0.0000000       0.0000000
       0.0000000       0.0000000       0.0000000       0.0000000       0.0000000       0.0000000       0.0000000       0.0000000       0.0000000       0.0000000
       0.0000000       0.0000000       0.0000000       0.0000000       0.0000000       0.0000000       0.0000000       0.0000000       0.0000000       0.0000000
       0.0000000       0.0000000       0.0000000       0.0000000       0.0000000       0.0000000       0.0000000       0.0000000       0.0000000       0.0000000
       0.0000000       0.0000000       0.0000000       0.0000000       0.0000000       0.0000000       0.0000000       0.0000000       0.0000000       0.0000000
       0.0000000       0.0000000       0.0000000       0.0000000       0.0000000       0.0000000       0.0000000       0.0000000       0.0000000       0.0000000
       0.0000000       0.0000000       0.0000000       0.0000000       0.0000000       0.0000000       0.0000000       0.0000000       0.0000000       0.0000000
       0.0000000       0.0000000       0.0000000       0.0000000       0.0000000       0.0000000       0.0000000       0.0000000       0.0000000       0.0000000
       0.0000000       0.0000000       0.0000000       0.0000000       0.0000000       0.0000000       0.0000000       0.0000000       0.0000000       0.0000000
       0.0000000       0.0000000       0.0000000       0.0000000       0.0000000       0.0000000       0.0000000       0.0000000       0.0000000       0.0000000
       0.0000000       0.0000000       0.0000000       0.0000000       0.0000000       0.0000000       0.0000000       0.0000000       0.0000000       0.0000000
       0.0000000       0.0000000       0.0000000       0.0000000       0.0000000       0.0000000       0.0000000       0.0000000       0.0000000       0.0000000
       0.0000000       0.0000000       0.0000000       0.0000000       0.0000000       0.0000000       0.0000000       0.0000000       0.0000000       0.0000000
       0.0000000       0.0000000       0.0000000       0.0000000       0.0000000       0.0000000       0.0000000       0.0000000       0.0000000       0.0000000
       0.0000000       0.0000000       0.0000000       0.0000000       0.0000000       0.0000000       0.0000000       0.0000000       0.0000000       0.0000000
       0.0000000       0.0000000       0.0000000       0.0000000       0.0000000       0.0000000       0.0000000       0.0000000       0.0000000       0.0000000
       0.0000000       0.0000000       0.0000000       0.0000000       0.0000000       0.0000000       0.0000000       0.0000000       0.0000000       0.0000000
       0.0000000       0.0000000       0.0000000       0.0000000       0.0000000       0.0000000       0.0000000       0.0000000       0.0000000       0.0000000
       0.0000000       0.0000000       0.0000000       0.0000000       0.0000000       0.0000000       0.0000000       0.0000000       0.0000000       0.0000000
       0.0000000       0.0000000       0.0000000       0.0000000       0.0000000       0.0000000       0.0000000       0.0000000       0.0000000       0.0000000
       0.0000000       0.0000000       0.0000000       0.0000000       0.0000000       0.0000000       0.0000000       0.0000000       0.0000000       0.0000000
       0.0000000       0.0000000       0.0000000       0.0000000       0.0000000       0.0000000       0.0000000       0.0000000       0.0000000       0.0000000
       0.0000000       0.0000000       0.0000000       0.0000000       0.0000000       0.0000000       0.0000000       0.0000000       0.0000000       0.0000000
       0.0000000       0.0000000       0.0000000       0.0000000       0.0000000       0.0000000       0.0000000       0.0000000       0.0000000       0.0000000
       0.0000000       0.0000000       0.0000000       0.0000000       0.0000000       0.0000000       0.0000000       0.0000000       0.0000000       0.0000000
       0.0000000



       0.0000000       0.0000000       0.0000000       0.0000000       0.0000000       0.0000000       0.0000000       0.0000000       0.0000000       0.0000000
       0.0000000       0.0000000       0.0000000       0.0000000       0.0000000       0.0000000       0.0000000       0.0000000       0.0000000       0.0000000
       0.0000000       0.0000000       0.0000000       0.0000000       0.0000000       0.0000000       0.0000000       0.0000000       0.0000000       0.0000000
       0.0000000       0.0000000       0.0000000       0.0000000       0.0000000       0.0000000       0.0000000       0.0000000       0.0000000       0.0000000
       0.0000000       0.0000000       0.0000000       0.0000000       0.0000000       0.0000000       0.0000000       0.0000000       0.0000000       0.0000000
       0.0000000       0.0000000       0.0000000       0.0000000       0.0000000       0.0000000       0.0000000       0.0000000       0.0000000       0.0000000
       0.0000000       0.0000000       0.0000000       0.0000000       0.0000000       0.0000000       0.0000000       0.0000000       0.0000000       0.0000000
       0.0000000       0.0000000       0.0000000       0.0000000       0.0000000       0.0000000       0.0000000       0.0000000       0.0000000       0.0000000
       0.0000000       0.0000000       0.0000000       0.0000000       0.0000000       0.0000000       0.0000000       0.0000000       0.0000000       0.0000000
       0.0000000       0.0000000       0.0000000       0.0000000       0.0000000       0.0000000       0.0000000       0.0000000       0.0000000       0.0000000
       0.0000000       0.0000000       0.0000000       0.0000000       0.0000000       0.0000000       0.0000000       0.0000000       0.0000000       0.0000000
       0.0000000       0.0000000       0.0000000       0.0000000       0.0000000       0.0000000       0.0000000       0.0000000       0.0000000       0.0000000
       0.0000000       0.0000000       0.0000000       0.0000000       0.0000000       0.0000000       0.0000000       0.0000000       0.0000000       0.0000000
       0.0000000       0.0000000       0.0000000       0.0000000       0.0000000       0.0000000       0.0000000       0.0000000       0.0000000       0.0000000
       0.0000000       0.0000000       0.0000000       0.0000000       0.0000000       0.0000000       0.0000000       0.0000000       0.0000000       0.0000000
       0.0000000       0.0000000       0.0000000       0.0000000       0.0000000       0.0000000       0.0000000       0.0000000       0.0000000       0.0000000
       0.0000000       0.0000000       0.0000000       0.0000000       0.0000000       0.0000000       0.0000000       0.0000000       0.0000000       0.0000000
       0.0000000       0.0000000       0.0000000       0.0000000       0.0000000       0.0000000       0.0000000       0.0000000       0.0000000       0.0000000
       0.0000000       0.0000000       0.0000000       0.0000000       0.0000000       0.0000000       0.0000000       0.0000000       0.0000000       0.0000000
       0.0000000       0.0000000       0.0000000       0.0000000       0.0000000       0.0000000       0.0000000       0.0000000       0.0000000       0.0000000
       0.0000000       0.0000000       0.0000000       0.0000000       0.0000000       0.0000000       0.0000000       0.0000000       0.0000000       0.0000000
       0.0000000       0.0000000       0.0000000       0.0000000       0.0000000       0.0000000       0.0000000       0.0000000       0.0000000       0.0000000
       0.0000000       0.0000000       0.0000000       0.0000000       0.0000000       0.0000000       0.0000000       0.0000000       0.0000000       0.0000000
       0.0000000       0.0000000       0.0000000       0.0000000       0.0000000       0.0000000       0.0000000       0.0000000       0.0000000       0.0000000
       0.0000000       0.0000000       0.0000000       0.0000000       0.0000000       0.0000000       0.0000000       0.0000000       0.0000000       0.0000000
       0.0000000       0.0000000       0.0000000       0.0000000       0.0000000       0.0000000       0.0000000       0.0000000       0.0000000       0.0000000
       0.0000000       0.0000000       0.0000000       0.0000000       0.0000000       0.0000000       0.0000000       0.0000000       0.0000000       0.0000000
       0.0000000       0.0000000       0.0000000       0.0000000       0.0000000       0.0000000       0.0000000       0.0000000       0.0000000       0.0000000
       0.0000000       0.0000000       0.0000000       0.0000000       0.0000000       0.0000000       0.0000000       0.0000000       0.0000000       0.0000000
       0.0000000       0.0000000       0.0000000       0.0000000       0.0000000       0.0000000       0.0000000       0.0000000       0.0000000       0.0000000
       0.0000000       0.0000000       0.0000000       0.0000000       0.0000000       0.0000000       0.0000000       0.0000000       0.0000000       0.0000000
       0.0000000       0.0000000       0.0000000       0.0000000       0.0000000       0.0000000       0.0000000       0.0000000       0.0000000       0.0000000
       0.0000000       0.0000000       0.0000000       0.0000000       0.0000000       0.0000000       0.0000000       0.0000000       0.0000000       0.0000000
       0.0000000



       0.0000000       0.0000000       0.0000000       0.0000000       0.0000000       0.0000000       0.0000000       0.0000000       0.0000000       0.0000000
       0.0000000       0.0000000       0.0000000       0.0000000       0.0000000       0.0000000       0.0000000       0.0000000       0.0000000       0.0000000
       0.0000000       0.0000000       0.0000000       0.0000000       0.0000000       0.0000000       0.0000000       0.0000000       0.0000000       0.0000000
       0.0000000       0.0000000       0.0000000       0.0000000       0.0000000       0.0000000       0.0000000       0.0000000       0.0000000       0.0000000
       0.0000000       0.0000000       0.0000000       0.0000000       0.0000000       0.0000000       0.0000000       0.0000000       0.0000000       0.0000000
       0.0000000       0.0000000       0.0000000       0.0000000       0.0000000       0.0000000       0.0000000       0.0000000       0.0000000       0.0000000
       0.0000000       0.0000000       0.0000000       0.0000000       0.0000000       0.0000000       0.0000000       0.0000000       0.0000000       0.0000000
       0.0000000       0.0000000       0.0000000       0.0000000       0.0000000       0.0000000       0.0000000       0.0000000       0.0000000       0.0000000
       0.0000000       0.0000000       0.0000000       0.0000000       0.0000000       0.0000000       0.0000000       0.0000000       0.0000000       0.0000000
       0.0000000       0.0000000       0.0000000       0.0000000       0.0000000       0.0000000       0.0000000       0.0000000       0.0000000       0.0000000
       0.0000000       0.0000000       0.0000000       0.0000000       0.0000000       0.0000000       0.0000000       0.0000000       0.0000000       0.0000000
       0.0000000       0.0000000       0.0000000       0.0000000       0.0000000       0.0000000       0.0000000       0.0000000       0.0000000       0.0000000
       0.0000000       0.0000000       0.0000000       0.0000000       0.0000000       0.0000000       0.0000000       0.0000000       0.0000000       0.0000000
       0.0000000       0.0000000       0.0000000       0.0000000       0.0000000       0.0000000       0.0000000       0.0000000       0.0000000       0.0000000
       0.0000000       0.0000000       0.0000000       0.0000000       0.0000000       0.0000000       0.0000000       0.0000000       0.0000000       0.0000000
       0.0000000       0.0000000       0.0000000       0.0000000       0.0000000       0.0000000       0.0000000       0.0000000       0.0000000       0.0000000
       0.0000000       0.0000000       0.0000000       0.0000000       0.0000000       0.0000000       0.0000000       0.0000000       0.0000000       0.0000000
       0.0000000       0.0000000       0.0000000       0.0000000       0.0000000       0.0000000       0.0000000       0.0000000       0.0000000       0.0000000
       0.0000000       0.0000000       0.0000000       0.0000000       0.0000000       0.0000000       0.0000000       0.0000000       0.0000000       0.0000000
       0.0000000       0.0000000       0.0000000       0.0000000       0.0000000       0.0000000       0.0000000       0.0000000       0.0000000       0.0000000
       0.0000000       0.0000000       0.0000000       0.0000000       0.0000000       0.0000000       0.0000000       0.0000000       0.0000000       0.0000000
       0.0000000       0.0000000       0.0000000       0.0000000       0.0000000       0.0000000       0.0000000       0.0000000       0.0000000       0.0000000
       0.0000000       0.0000000       0.0000000       0.0000000       0.0000000       0.0000000       0.0000000       0.0000000       0.0000000       0.0000000
       0.0000000       0.0000000       0.0000000       0.0000000       0.0000000       0.0000000       0.0000000       0.0000000       0.0000000       0.0000000
       0.0000000       0.0000000       0.0000000       0.0000000       0.0000000       0.0000000       0.0000000       0.0000000       0.0000000       0.0000000
       0.0000000       0.0000000       0.0000000       0.0000000       0.0000000       0.0000000       0.0000000       0.0000000       0.0000000       0.0000000
       0.0000000       0.0000000       0.0000000       0.0000000       0.0000000       0.0000000       0.0000000       0.0000000       0.0000000       0.0000000
       0.0000000       0.0000000       0.0000000       0.0000000       0.0000000       0.0000000       0.0000000       0.0000000       0.0000000       0.0000000
       0.0000000       0.0000000       0.0000000       0.0000000       0.0000000       0.0000000       0.0000000       0.0000000       0.0000000       0.0000000
       0.0000000       0.0000000       0.0000000       0.0000000       0.0000000       0.0000000       0.0000000       0.0000000       0.0000000       0.0000000
       0.0000000       0.0000000       0.0000000       0.0000000       0.0000000       0.0000000       0.0000000       0.0000000       0.0000000       0.0000000
       0.0000000       0.0000000       0.0000000       0.0000000       0.0000000       0.0000000       0.0000000       0.0000000       0.0000000       0.0000000
       0.0000000       0.0000000       0.0000000       0.0000000       0.0000000       0.0000000       0.0000000       0.0000000       0.0000000       0.0000000
       0.0000000



        67        68        49
        15        29        13
       134       136       118
       149       148       130
       109        91        90
        90        91        70
        91        72        70
        38        39        56
       109       117       127
       119       136       135
        37        36        55
        57        53        40
        35        53        55
        72        91        92
        52        38        54
        76        60        79
        53        57        73
       133       116       120
        52        72        71
        73        57        76
       150       133       151
        57        60        76
        79        60        61
        98       116       115
       116       133       115
        60        57        44
        39        38        32
       134       148       152
        80        78        62
        37        39        20
        19        37        20
       149       150       166
       154       136       153
       115       133       132
        30        14        16
        35        36        18
        92        91       110
       132       150       131
       148       134       130
       119       117       100
       136       119       118
       127       117       135
       100       109        90
        39        37        56
        98        80        82
       166       150       151
       164       163       173
        58        60        44
       137       133       120
       159       164       171
       136       134       153
        34        35        18
        32        38        51
        91       109       110
        88        68        67
        53        35        34
        36        37        19
         2         1         3
         1         4         3
       112        93       108
        93        89       108
       129       112       126
       141       142       158
       124       141       140
       116        98       101
       142       159       158
        10        12        11
        48        66        65
        12        28        11
        86       105        85
        26        28        27
       105       124       123
        66        86        65
       133       150       132
        78        80        97
         9         4         8
       117       119       135
       171       164       174
       158       159       171
       153       134       152
        28        48        27
         8        12        10
         3         4         9
        85       105       104
       140       156       139
         7         5         6
         4        12         8
        30        29        15
         5         2         6
        89        68        88
       104       122       103
       140       141       157
       173       163       162
       121       138       120
       108        89       107
       177       178       179
        85        64        65
        46        64        45
        42        23        25
       139       122       123
        65        64        47
        86        85        65
       162       163       146
        31        50        49
       141       158       157
       138       122       139
       111       125       106
        89        88       107
         9        21        22
         9        17         6
        34        17        22
        26        46        25
        24        21        10
        24        23        42
       126       125       143
       112       108       126
        36        35        55
        97        96        79
       131       149       130
        74        94        75
        58        43        59
        21         9         8
       114        94        96
        80        98        97
        72        52        54
        69        74        75
       173       178       174
       157       171       170
        94        74        73
        96        94        77
       143       125       128
        71        72        92
       174       178       177
       176       178       172
         2         3         6
        17         9        22
         7        17        18
        33        30        16
        38        52        51
       107        88       106
        92       111       106
        17        34        18
        14         7        19
       123       122       104
        64        85        84
        42        43        58
        59        63        62
       158       171       157
       156       140       157
        63        64        83
       170       171       177
       124       140       139
       156       138       139
        64        46        47
        48        65        47
        23        24        10
        21         8        10
       146       129       144
       125       111       128
       156       157       170
       138       156       155
        21        24        40
        53        34        40
         3         9         6
        17         7         6
       143       160       144
       162       160       172
       164       173       174
       176       175       179
       148       149       165
       168       175       176
        47        46        27
        26        23        11
       160       143       145
       178       173       172
       129       126       144
       160       162       146
       126       108       107
       125       126       107
       110       109       127
        50        71        67
       106        88        87
        67        71        87
        94       114        95
       117       109       100
        45        43        25
        44        57        41
        55        74        56
        95        81        75
        19         7        18
        36        19        18
        73        74        55
        53        73        55
        50        30        33
        71        50        51
       115        96        97
        76        96        77
        14        19        16
        16        19        20
       150       149       131
       114        96       115
         7        14        13
        14        30        15
        30        50        31
        29        30        31
       170       175       167
       167       166       151
        45        63        59
        40        24        41
        56        74        54
        37        55        56
       113       114       131
       114       115       132
        69        81        90
       100        81        99
        96        76        79
        98       115        97
        84        85       104
       124       139       123
        64        84        83
       102        84       103
        48        47        27
        46        26        27
        23        10        11
        28        26        11
       156       170       155
       155       170       167
         5         7        13
       146       163       147