VARIABLES= "X" "Y" "MATERIAL" "SIGXX" "SIGYY" "SIGXY"
ZONE T="TIME=0.0sec" N=   1209 E=    466 DATAPACKING=BLOCK  ZONETYPE=FETRIANGLE
VARLOCATION=([3,4,5,6] =CELLCENTERED) C=BLACK

     10.0000     10.0000      9.3649      9.3649     10.0000      9.0000      9.3649      9.3649     10.0000      9.0000
      8.6558      9.3649      9.1623     10.0000      9.0000      8.6558      8.6558      9.1623      9.1623     10.0000
      8.0000      8.6558      8.6558      9.1623      9.1623      9.1623     10.0000      8.0000      8.0988      8.6558
      8.2954      9.1623      8.5534      5.0000      6.0000      9.2462      9.2462     10.0000      8.0000      8.0988
      8.0988      8.2954      8.2954      8.5534      8.5534      6.0000      5.0000      5.0000      6.0000      5.3894
      6.0000      9.2462      8.6124      9.2462     10.0000      7.0000      7.0000      8.0000      7.4322      8.0988
      8.2954      8.2954      8.5534      8.5534      8.6124      6.5838      4.0000      5.3894      4.7905      4.7905
      6.5838      5.9391      5.3894      5.9391      9.2462      8.6124      9.2462     10.0000      7.0000      7.4322
      7.4322      8.2954      8.5534      7.8439      8.1268      8.6124      6.5838      4.0000      5.3894      4.7905
      4.7905      6.5838      5.9391      5.3894      5.9391      9.1284      8.6124      9.1284     10.0000      8.6124
     10.0000     10.0000      4.0000      4.3455      7.4322      7.4322      8.1268      7.8439      7.8439      8.1268
      8.0429      6.5838      4.3455      5.2108      4.7905      6.5379      5.9391      5.2108      5.9391     10.0000
     10.0000     10.0000      8.5424      9.1284      9.1284      8.5424      8.0429     10.0000      9.1706     10.0000
      3.5787      3.5787      4.0000      4.3455      7.4322      7.4322      8.1268      7.8439      7.8439      8.1268
      8.0429      6.5379      4.3455      5.2108      6.5379      5.8992      5.8992      5.2108      9.1085     10.0000
      8.5424      9.1284      9.1284      8.5424      8.0429      9.1085      9.1706      9.1706     10.0000      9.2328
      3.8988      3.5787      3.5787      3.0000      4.3455      3.8988      7.4322      7.0721      7.5498      7.8439
      7.5498      8.0429      6.5379      4.3455      5.2108      6.5379      5.8992      5.8992      5.2108      9.1085
      8.3637      9.1284      8.3637      8.0429      8.0429      9.1085     10.0000     10.0000     10.0000      8.7493
      9.1706      9.1706      9.2328      8.7097      9.2328     10.0000      9.2757      9.0017     10.0000     10.0000
      3.8988      3.3515      3.5787      3.3515      3.5787      3.0000      4.5818      3.8988      7.0721      7.0721
      7.5498      7.5498      7.4184      6.5379      4.5818      5.2108      6.2802      5.8992      5.5123      7.4184
      9.1085      8.3637      8.3637      7.6462      7.6462      9.1085     10.0000      9.0017      8.7493      8.7493
      9.1706      9.1706      8.7097      9.2328      8.7097      9.2328     10.0000      9.2757      9.2757      9.0017
      9.3411     10.0000     10.0000      3.8988      3.3515      2.8670      3.3515      2.8670      3.0000      3.0000
      3.6237      4.5818      7.0721      7.0721      7.5498      7.5498      7.4184      6.2802      4.5818      5.5123
      6.2802      5.5123      7.4184      9.1085      8.3637      8.3637      7.6462      7.6462      8.3270      9.0017
      8.7493      8.3760      8.3760      8.7097      8.7097      9.2328      8.5045      9.3411      9.2757      8.7610
      9.0017      9.3411      9.3919      9.3919     10.0000      3.6237      3.3515      2.8670      2.7782      2.8670
      2.3072      2.3072      2.0000      3.6237      4.5818      7.0721      6.7614      6.7614      7.4184      6.2802
      4.5818      5.5123      6.2802      5.5123      7.0689      7.0689      8.3270      8.3637      7.7180      7.6462
      7.6462      8.3270      9.0017      9.0017      8.3760      8.3760      8.2488      8.2488      8.5045      8.5045
      9.3411      8.2745      8.7610      8.2745      8.7610      9.3411      9.3919      9.3919     10.0000      3.6237
      3.6237      2.7782      2.8670      2.7782      2.8670      2.3072      2.3072      2.0000      2.0000      1.0000
      4.1383      4.5818      4.1383      3.6482      6.7614      6.7614      4.5818      6.2802      5.2063      5.5123
      5.8771      7.0689      7.0689      8.3270      7.7180      7.7180      7.2404      7.2404      8.3270      9.0017
      7.9613      8.3760      8.3760      8.2488      8.2488      8.5045      8.5045      9.3411      8.2745      8.7610
      8.2745      8.7610      8.6200      9.3919      9.0000      3.6237      3.6482      3.6237      2.7782      2.1798
      2.7782      2.1798      2.3072      1.4875      1.4875      1.0000      1.0000      4.1383      4.6963      4.1383
      3.6482      6.7614      6.6606      6.7614      5.2063      4.6963      5.8771      5.2063      5.8771      7.0689
      7.0689      8.3270      7.7180      7.7180      7.2404      7.2404      7.6227      7.9613      7.9613      8.3760
      7.7784      8.2488      7.8586      8.5045      8.6200      7.5934      8.2745      8.7610      8.0558      8.6200
      9.0000      3.6482      2.9512      2.9512      2.7782      2.7782      2.1798      2.1130      2.1798      1.4875
      1.4875      0.6483      0.6483      0.0000      4.1383      4.6963      4.1280      3.6482      6.7614      6.6606
      6.6606      6.7614      5.2063      4.6963      5.8771      5.2063      5.8771      6.6681      6.6681      7.6227
      7.7180      7.0871      7.2404      7.6227      7.9613      7.9613      7.7784      7.7784      7.8586      7.8586
      7.5934      8.6200      7.5934      8.0558      8.0558      8.6200      9.0000      3.3883      2.1130      2.9512
      2.9512      2.3506      2.3506      2.1798      2.1130      2.1798      1.4875      1.4875      0.6483      0.6483
      0.0000      3.3883      3.3883      4.6963      4.1280      4.1280      6.1352      6.6606      6.1352      5.3512
      4.6963      5.8771      5.3512      6.6681      6.6681      7.6227      7.0871      7.0871      7.6227      7.9613
      7.1272      7.9613      7.7784      7.7784      7.8586      7.8586      7.5934      8.6200      7.5934      8.0558
      8.0558      8.6200      8.0000      3.3883      3.0272      3.3883      2.1130      2.9512      2.9512      2.3506
      2.3506      1.5227      2.1130      1.5227      1.4875      0.7546      0.6483      0.0000      3.0272      3.3883
      3.3883      3.4372      4.7583      4.1280      4.1280      6.1352      6.1352      4.7583      5.3512      5.3512
      6.6681      6.6681      7.6227      7.0871      7.0871      7.2646      7.6227      7.1272      7.3628      7.3628
      7.1272      7.7784      7.2824      7.8586      7.2646      6.8470      7.5934      7.7939      7.2959      8.0558
      7.7939      8.0000      3.0272      2.6832      3.0272      2.6832      1.7311      2.9512      2.1754      2.3506
      1.5227      1.7311      1.5227      0.7546      0.7546      0.0000      3.0272      3.8336      3.8336      3.4372
      3.4372      4.7583      4.1280      4.1280      6.1352      6.1352      4.7583      5.3512      5.3512      6.0000
      6.4737      6.6681      6.7895      7.0871      7.2646      6.7895      7.1272      7.3628      7.3628      7.1272
      7.2824      7.2824      7.2646      6.4186      6.8470      6.8470      7.2959      7.7939      7.2959      7.7939
      8.0000      3.0508      2.5745      2.6832      2.5745      2.6832      1.7311      2.1754      2.1754      1.5227
      1.7311      1.5227      0.7546      0.7546      0.0000      3.0508      3.8336      3.8336      3.4372      3.4372
      4.7583      4.4211      4.4211      5.6172      6.1352      4.7583      5.1579      5.3512      6.0000      6.0000
      6.4737      6.4737      6.7895      7.2646      6.7895      7.1272      7.3628      6.5789      7.2824      7.2824
      6.8421      6.4186      6.4186      6.4186      5.9539      6.4186      6.8470      6.8470      7.2959      7.7939
      7.2959      7.0000      3.0508      2.5745      2.6832      2.5745      2.6832      1.7311      2.1754      2.1754
      0.8702      1.7311      0.8702      0.7546      0.0000      3.0508      3.0508      3.7895      3.8336      3.5311
      3.4372      4.7895      4.7895      4.4211      4.4211      5.6172      5.6172      5.1579      5.1579      6.0000
      6.4737      6.7895      6.8421      6.5789      6.5789      7.2824      6.8421      6.4186      6.4186      5.9539
      6.0000      5.9539      6.1593      5.9539      6.1593      6.8470      6.4880      7.2959      7.0000      3.0508
      2.5526      2.5745      1.9799      2.5745      1.9799      1.3544      2.1754      1.3544      0.8702      0.8702
      0.0000      2.9180      3.0508      3.3158      3.7895      3.7895      3.5311      3.5311      4.7895      4.4211
      5.6172      5.1579      5.8646      6.1965      6.1814      6.8421      6.5789      6.5789      6.2632      6.2632
      6.0000      5.9539      6.0000      5.6215      5.5694      5.6215      6.1593      6.1593      6.4880      6.4880
      7.0000      2.9180      2.5526      2.5526      2.1558      2.1558      1.9799      1.9799      1.3544      1.3544
      0.7309      0.8702      0.8702      0.0000      2.9180      3.3158      3.3158      3.7895      3.5311      4.7223
      4.2505      5.2266      5.6784      5.5509      6.0406      6.5789      6.2632      6.0000      5.5694      5.6215
      5.5694      5.6215      5.6215      6.1593      6.1593      6.4880      6.4880      7.0000      2.9180      3.1053
      2.9180      2.5526      2.5526      2.1558      2.1558      1.9799      1.9799      1.3544      1.3544      0.7309
      0.7309      0.8702      0.0000      2.8070      3.1053      3.1053      3.3158      3.8309      4.4920      5.0632
      5.0109      5.3497      5.7522      5.5694      5.2105      5.2105      5.2081      5.6215      5.6256      5.2081
      5.6256      6.4880      6.0000      3.1053      2.5683      2.5683      2.5526      2.0534      2.1558      1.9799
      1.6236      1.2963      1.3544      0.7009      0.7309      0.0000      2.8070      2.8070      3.0000      3.0000
      3.0000      3.1053      3.5179      3.9248      4.4383      4.6719      5.0925      5.1359      5.2105      5.2105
      5.2081      5.2105      4.6316      5.6256      5.2081      5.6256      6.0000      2.5683      2.5683      2.0534
      2.0534      1.6236      1.2963      1.6236      1.2963      0.7009      0.7009      0.0000      2.8070      2.5571
      3.0000      3.0239      3.0239      3.0239      2.5571      3.4164      3.8636      4.0642      4.2058      4.5678
      4.6316      4.6800      5.2081      4.6800      4.6316      4.6316      4.8998      5.6256      4.8998      5.6256
      6.0000      2.5683      2.5683      2.0534      2.0534      1.6236      1.2963      1.6236      1.2963      0.7009
      0.7009      0.0000      2.5571      3.0239      3.0526      2.7520      2.7520      2.5571      3.4860      3.7371
      4.0025      4.2492      4.2492      4.6800      4.6800      4.2880      4.2880      4.8998      5.6256      4.8998
      5.0000      2.5683      1.9921      2.0534      1.4366      1.6236      0.8272      0.8272      0.7009      0.0000
      2.5571      3.0526      3.0526      2.7520      2.7520      2.5571      3.2533      3.4211      3.8421      3.8421
      4.2492      4.2492      4.6800      4.6800      4.2880      4.2880      4.4216      4.8998      4.8998      5.0000
      1.9921      1.9921      1.4366      1.4366      0.8272      0.8272      0.0000      2.5571      2.5571      3.0526
      2.7620      2.7520      2.3710      3.2533      3.2533      3.4211      3.4211      3.8421      3.8421      3.7821
      4.4216      3.7821      4.6800      4.0954      4.2880      4.4216      4.4588      4.4588      5.0000      1.9921
      1.9921      1.4366      1.4366      0.8272      0.8272      0.0000      1.9541      1.9541      2.3710      2.7620
      2.7620      2.3710      3.2533      2.8891      3.4211      3.3309      3.3309      3.7821      4.4216      3.7821
      4.0954      4.0954      4.4216      4.4588      4.4588      5.0000      1.9921      1.3937      1.4366      0.7384
      0.8272      0.0000      1.9541      1.9541      2.3710      1.9517      2.7620      2.7620      2.3710      2.8891
      2.8891      3.3309      3.3309      3.7821      3.2428      3.9693      3.7821      4.0954      4.0954      3.9693
      4.4588      4.0000      1.3937      1.3937      0.7384      0.7384      0.0000      1.9541      1.9541      2.3710
      1.9517      1.9517      2.7620      2.2654      2.8891      2.8891      3.3309      3.3309      3.2428      3.7821
      3.2428      3.9693      3.4293      4.0954      3.9693      4.0000      1.3937      1.3937      0.7384      0.7384
      0.0000      1.4748      1.4748      2.2654      1.9517      1.9517      2.2654      2.8891      2.8891      2.8162
      2.8162      3.2428      3.4293      3.2428      3.9693      3.4293      3.9693      4.0000      1.3937      0.7791
      0.7384      0.0000      1.4748      1.4748      2.2654      1.7114      1.7114      2.2654      2.3911      2.3911
      2.8162      2.8162      2.8641      2.8641      3.4293      3.4089      3.4293      3.4089      4.0000      0.7791
      0.7791      0.0000      1.4748      1.4748      2.2654      1.7114      1.7114      2.2654      2.3911      2.3911
      2.8162      2.8162      2.8641      2.8641      3.4293      3.4089      3.4293      3.4089      3.0000      0.7791
      0.7791      0.0000      1.0774      1.0774      1.8074      1.7114      1.8074      2.3911      2.1964      2.1964
      2.8641      2.6476      3.4089      2.6476      3.0000      0.7791      0.0000      1.0774      1.0774      1.8074
      1.8074      2.1964      2.1964      2.6476      2.6476      3.0000      0.0000      1.0774      1.0774      1.8074
      1.8074      2.1964      2.1964      2.6476      2.6476      2.0000      0.5626      0.0000      1.0774      1.2272
      1.2272      2.1964      1.6442      2.6476      2.0000      0.5626      0.5626      0.0000      1.2272      1.2272
      1.6442      1.6442      2.0000      0.5626      0.5626      0.0000      1.2272      1.2272      1.6442      1.6442
      1.0000      0.5175      0.5175      0.0000      1.2272      0.8052      1.6442      1.0000      0.5175      0.5175
      0.0000      0.8052      0.8052      1.0000      0.5175      0.0000      0.8052      0.8052      0.4509      1.0000
      0.0000      0.8052      0.4509      0.4509      0.0000      0.0000      0.4509      0.0000      0.0000



     10.0000     10.0000      9.3756      9.3756      9.0000     10.0000      9.3756      9.3756      9.0000     10.0000
      9.3181      9.3756      8.5564      9.0000     10.0000      9.3181      9.3181      8.5564      8.5564      8.0000
     10.0000      9.3181      9.3181      8.5564      8.5564      8.5564      8.0000     10.0000      9.2639      9.3181
      8.7054      8.5564      7.9399     10.0000     10.0000      7.5447      7.5447      8.0000     10.0000      9.2639
      9.2639      8.7054      8.7054      7.9399      7.9399     10.0000     10.0000     10.0000     10.0000      9.4811
     10.0000      7.5447      7.1900      7.5447      7.0000     10.0000     10.0000     10.0000      9.0252      9.2639
      8.7054      8.7054      7.9399      7.9399      7.1900      9.3704     10.0000      9.4811      9.4568      9.4568
      9.3704      9.1424      9.4811      9.1424      7.5447      7.1900      7.5447      7.0000     10.0000      9.0252
      9.0252      8.7054      7.9399      8.1131      7.5106      7.1900      9.3704     10.0000      9.4811      9.4568
      9.4568      9.3704      9.1424      9.4811      9.1424      6.5712      7.1900      6.5712      7.0000      7.1900
      5.0000      4.0000     10.0000      8.9962      9.0252      9.0252      7.5106      8.1131      8.1131      7.5106
      6.8689      9.3704      8.9962      8.8014      9.4568      8.6773      9.1424      8.8014      9.1424      5.0000
      6.0000      6.0000      6.6865      6.5712      6.5712      6.6865      6.8689      5.0000      4.4539      4.0000
      9.1770      9.1770     10.0000      8.9962      9.0252      9.0252      7.5106      8.1131      8.1131      7.5106
      6.8689      8.6773      8.9962      8.8014      8.6773      8.5143      8.5143      8.8014      5.4620      6.0000
      6.6865      6.5712      6.5712      6.6865      6.8689      5.4620      4.4539      4.4539      4.0000      3.5133
      8.5203      9.1770      9.1770     10.0000      8.9962      8.5203      9.0252      8.0538      7.4217      8.1131
      7.4217      6.8689      8.6773      8.9962      8.8014      8.6773      8.5143      8.5143      8.8014      5.4620
      6.1061      6.5712      6.1061      6.8689      6.8689      5.4620      3.0000      3.0000      2.0000      4.8894
      4.4539      4.4539      3.5133      3.8903      3.5133      2.0000      1.8460      2.4739      2.0000      1.0000
      8.5203      8.5427      9.1770      8.5427      9.1770     10.0000      8.0100      8.5203      8.0538      8.0538
      7.4217      7.4217      6.8380      8.6773      8.0100      8.8014      7.9425      8.5143      7.9953      6.8380
      5.4620      6.1061      6.1061      6.3083      6.3083      5.4620      3.0000      2.4739      4.8894      4.8894
      4.4539      4.4539      3.8903      3.5133      3.8903      3.5133      2.0000      1.8460      1.8460      2.4739
      1.3073      1.0000      1.0000      8.5203      8.5427      8.9891      8.5427      8.9891     10.0000     10.0000
      7.8611      8.0100      8.0538      8.0538      7.4217      7.4217      6.8380      7.9425      8.0100      7.9953
      7.9425      7.9953      6.8380      5.4620      6.1061      6.1061      6.3083      6.3083      5.2145      2.4739
      4.8894      4.4319      4.4319      3.8903      3.8903      3.5133      3.2723      1.3073      1.8460      1.6088
      2.4739      1.3073      0.6167      0.6167      0.0000      7.8611      8.5427      8.9891      8.1489      8.9891
      9.3714      9.3714     10.0000      7.8611      8.0100      8.0538      7.1232      7.1232      6.8380      7.9425
      8.0100      7.9953      7.9425      7.9953      6.4536      6.4536      5.2145      6.1061      5.6232      6.3083
      6.3083      5.2145      2.4739      2.4739      4.4319      4.4319      3.7936      3.7936      3.2723      3.2723
      1.3073      1.9597      1.6088      1.9597      1.6088      1.3073      0.6167      0.6167      0.0000      7.8611
      7.8611      8.1489      8.9891      8.1489      8.9891      9.3714      9.3714     10.0000     10.0000     10.0000
      7.3669      8.0100      7.3669      7.1513      7.1232      7.1232      8.0100      7.9425      7.4150      7.9953
      7.2736      6.4536      6.4536      5.2145      5.6232      5.6232      5.9502      5.9502      5.2145      2.4739
      2.6097      4.4319      4.4319      3.7936      3.7936      3.2723      3.2723      1.3073      1.9597      1.6088
      1.9597      1.6088      0.7783      0.6167      0.0000      7.8611      7.1513      7.8611      8.1489      8.6761
      8.1489      8.6761      9.3714      9.1809      9.1809     10.0000     10.0000      7.3669      7.1054      7.3669
      7.1513      7.1232      6.5093      7.1232      7.4150      7.1054      7.2736      7.4150      7.2736      6.4536
      6.4536      5.2145      5.6232      5.6232      5.9502      5.9502      4.7795      2.6097      2.6097      4.4319
      4.0171      3.7936      3.3736      3.2723      0.7783      1.8231      1.9597      1.6088      1.3023      0.7783
      0.0000      7.1513      7.2684      7.2684      8.1489      8.1489      8.6761      8.0633      8.6761      9.1809
      9.1809      9.3514      9.3514     10.0000      7.3669      7.1054      6.6981      7.1513      7.1232      6.5093
      6.5093      7.1232      7.4150      7.1054      7.2736      7.4150      7.2736      5.9821      5.9821      4.7795
      5.6232      5.3803      5.9502      4.7795      2.6097      2.6097      4.0171      4.0171      3.3736      3.3736
      1.8231      0.7783      1.8231      1.3023      1.3023      0.7783      0.0000      6.5549      8.0633      7.2684
      7.2684      7.6167      7.6167      8.6761      8.0633      8.6761      9.1809      9.1809      9.3514      9.3514
     10.0000      6.5549      6.5549      7.1054      6.6981      6.6981      6.4715      6.5093      6.4715      6.6808
      7.1054      7.2736      6.6808      5.9821      5.9821      4.7795      5.3803      5.3803      4.7795      2.6097
      2.3965      2.6097      4.0171      4.0171      3.3736      3.3736      1.8231      0.7783      1.8231      1.3023
      1.3023      0.7783      0.0000      6.5549      6.1068      6.5549      8.0633      7.2684      7.2684      7.6167
      7.6167      8.2820      8.0633      8.2820      9.1809      8.5718      9.3514      9.0000      6.1068      6.5549
      6.5549      5.9405      6.4540      6.6981      6.6981      6.4715      6.4715      6.4540      6.6808      6.6808
      5.9821      5.9821      4.7795      5.3803      5.3803      4.1672      4.7795      2.3965      2.9978      2.9978
      2.3965      4.0171      3.5729      3.3736      4.1672      1.6563      1.8231      0.6225      1.0413      1.3023
      0.6225      0.0000      6.1068      6.5189      6.1068      6.5189      7.5747      7.2684      7.0137      7.6167
      8.2820      7.5747      8.2820      8.5718      8.5718      9.0000      6.1068      6.1967      6.1967      5.9405
      5.9405      6.4540      6.6981      6.6981      6.4715      6.4715      6.4540      6.6808      6.6808      5.7895
      5.3158      5.9821      4.6316      5.3803      4.1672      4.6316      2.3965      2.9978      2.9978      2.3965
      3.5729      3.5729      4.1672      2.2624      1.6563      1.6563      1.0413      0.6225      1.0413      0.6225
      0.0000      5.5977      5.9212      6.5189      5.9212      6.5189      7.5747      7.0137      7.0137      8.2820
      7.5747      8.2820      8.5718      8.5718      9.0000      5.5977      6.1967      6.1967      5.9405      5.9405
      6.4540      6.0526      6.0526      5.9330      6.4715      6.4540      6.1053      6.6808      5.7895      5.7895
      5.3158      5.3158      4.6316      4.1672      4.6316      2.3965      2.9978      3.0526      3.5729      3.5729
      3.8421      2.2624      2.2624      2.2624      2.0440      2.2624      1.6563      1.6563      1.0413      0.6225
      1.0413      0.0000      5.5977      5.9212      6.5189      5.9212      6.5189      7.5747      7.0137      7.0137
      7.6079      7.5747      7.6079      8.5718      8.0000      5.5977      5.5977      5.7368      6.1967      5.4498
      5.9405      6.0789      6.0789      6.0526      6.0526      5.9330      5.9330      6.1053      6.1053      5.7895
      5.3158      4.6316      3.8421      3.0526      3.0526      3.5729      3.8421      2.2624      2.2624      2.0440
      2.4211      2.0440      1.5763      2.0440      1.5763      1.6563      0.8644      1.0413      0.0000      5.5977
      5.3900      5.9212      6.2445      5.9212      6.2445      6.8504      7.0137      6.8504      7.6079      7.6079
      8.0000      5.1630      5.5977      5.2105      5.7368      5.7368      5.4498      5.4498      6.0789      6.0526
      5.9330      6.1053      5.3444      4.8804      4.3234      3.8421      3.0526      3.0526      2.7081      2.7081
      2.4211      2.0440      2.4211      1.7225      2.2488      1.7225      1.5763      1.5763      0.8644      0.8644
      0.0000      5.1630      5.3900      5.3900      5.6663      5.6663      6.2445      6.2445      6.8504      6.8504
      6.9678      7.6079      7.6079      8.0000      5.1630      5.2105      5.2105      5.7368      5.4498      5.7000
      5.5505      5.3605      4.7803      4.1550      3.6396      3.0526      2.7081      2.4211      2.2488      1.7225
      2.2488      1.7225      1.7225      1.5763      1.5763      0.8644      0.8644      0.0000      5.1630      4.7895
      5.1630      5.3900      5.3900      5.6663      5.6663      6.2445      6.2445      6.8504      6.8504      6.9678
      6.9678      7.6079      7.0000      4.5282      4.7895      4.7895      5.2105      5.2117      5.0453      4.6021
      4.0140      3.5495      2.9029      2.2488      2.1053      2.1053      1.4436      1.7225      0.9300      1.4436
      0.9300      0.8644      0.0000      4.7895      4.8230      4.8230      5.3900      5.1614      5.6663      6.2445
      5.6096      6.1275      6.8504      6.4112      6.9678      7.0000      4.5282      4.5282      4.3158      4.3158
      4.3158      4.7895      4.8411      4.6381      4.2347      3.5065      3.0579      2.5348      2.1053      2.1053
      1.4436      2.1053      2.1053      0.9300      1.4436      0.9300      0.0000      4.8230      4.8230      5.1614
      5.1614      5.6096      6.1275      5.6096      6.1275      6.4112      6.4112      7.0000      4.5282      4.1792
      4.3158      3.9809      3.9809      3.9809      4.1792      4.3488      4.1303      3.6783      3.2027      2.7817
      2.1053      1.5507      1.4436      1.5507      2.1053      2.1053      0.9189      0.9300      0.9189      0.9300
      0.0000      4.8230      4.8230      5.1614      5.1614      5.6096      6.1275      5.6096      6.1275      6.4112
      6.4112      7.0000      4.1792      3.9809      3.5789      3.7284      3.7284      4.1792      3.7352      3.2398
      2.7922      2.2582      2.2582      1.5507      1.5507      1.8428      1.8428      0.9189      0.9300      0.9189
      0.0000      4.8230      4.5362      5.1614      4.9317      5.6096      5.5202      5.5202      6.4112      6.0000
      4.1792      3.5789      3.5789      3.7284      3.7284      4.1792      3.1775      2.8421      2.4211      2.4211
      2.2582      2.2582      1.5507      1.5507      1.8428      1.8428      1.0456      0.9189      0.9189      0.0000
      4.5362      4.5362      4.9317      4.9317      5.5202      5.5202      6.0000      4.1792      4.1792      3.5789
      3.3022      3.7284      3.5923      3.1775      3.1775      2.8421      2.8421      2.4211      2.4211      1.9018
      1.0456      1.9018      1.5507      1.4027      1.8428      1.0456      0.5538      0.5538      0.0000      4.5362
      4.5362      4.9317      4.9317      5.5202      5.5202      6.0000      3.9099      3.9099      3.5923      3.3022
      3.3022      3.5923      3.1775      2.7302      2.8421      2.2999      2.2999      1.9018      1.0456      1.9018
      1.4027      1.4027      1.0456      0.5538      0.5538      0.0000      4.5362      4.1928      4.9317      4.5565
      5.5202      5.0000      3.9099      3.9099      3.5923      3.4174      3.3022      3.3022      3.5923      2.7302
      2.7302      2.2999      2.2999      1.9018      1.8218      0.8096      1.9018      1.4027      1.4027      0.8096
      0.5538      0.0000      4.1928      4.1928      4.5565      4.5565      5.0000      3.9099      3.9099      3.5923
      3.4174      3.4174      3.3022      2.9976      2.7302      2.7302      2.2999      2.2999      1.8218      1.9018
      1.8218      0.8096      1.2753      1.4027      0.8096      0.0000      4.1928      4.1928      4.5565      4.5565
      5.0000      3.5179      3.5179      2.9976      3.4174      3.4174      2.9976      2.7302      2.7302      2.0881
      2.0881      1.8218      1.2753      1.8218      0.8096      1.2753      0.8096      0.0000      4.1928      3.6850
      4.5565      4.0000      3.5179      3.5179      2.9976      3.0502      3.0502      2.9976      2.4034      2.4034
      2.0881      2.0881      1.5532      1.5532      1.2753      0.5884      1.2753      0.5884      0.0000      3.6850
      3.6850      4.0000      3.5179      3.5179      2.9976      3.0502      3.0502      2.9976      2.4034      2.4034
      2.0881      2.0881      1.5532      1.5532      1.2753      0.5884      1.2753      0.5884      0.0000      3.6850
      3.6850      4.0000      2.8306      2.8306      2.4732      3.0502      2.4732      2.4034      1.7278      1.7278
      1.5532      0.8620      0.5884      0.8620      0.0000      3.6850      3.0000      2.8306      2.8306      2.4732
      2.4732      1.7278      1.7278      0.8620      0.8620      0.0000      3.0000      2.8306      2.8306      2.4732
      2.4732      1.7278      1.7278      0.8620      0.8620      0.0000      2.2531      3.0000      2.8306      1.8232
      1.8232      1.7278      0.8968      0.8620      0.0000      2.2531      2.2531      3.0000      1.8232      1.8232
      0.8968      0.8968      0.0000      2.2531      2.2531      2.0000      1.8232      1.8232      0.8968      0.8968
      0.0000      1.6094      1.6094      2.0000      1.8232      0.9702      0.8968      0.0000      1.6094      1.6094
      2.0000      0.9702      0.9702      0.0000      1.6094      1.0000      0.9702      0.9702      0.4925      0.0000
      1.0000      0.9702      0.4925      0.4925      0.0000      1.0000      0.4925      0.0000      1.0000



      2      2      2      2      2      2      2      2      2      2
      2      2      2      2      2      2      2      2      2      2
      2      2      2      2      2      2      2      2      2      2
      2      2      2      2      2      2      2      2      2      2
      2      2      2      2      2      2      2      2      2      2
      2      2      2      2      2      2      2      2      2      2
      2      2      2      2      2      2      2      2      2      2